<?xml version="1.0" encoding="UTF-8"?>

<!-- generated on 2023-01-16 16:02:36 by Eclipse SUMO GUI Version 1.15.0
<configuration xmlns:xsi="http://www.w3.org/2001/XMLSchema-instance" xsi:noNamespaceSchemaLocation="http://sumo.dlr.de/xsd/sumoConfiguration.xsd">

    <input>
        <net-file value="/media/rob/Data/Projekte/PycharmProjects/rl-traffic/environment/unit_test_data/single-intersection.net.xml"/>
        <route-files value="/media/rob/Data/Projekte/PycharmProjects/rl-traffic/environment/unit_test_data/single-intersection.rou.xml"/>
    </input>

    <output>
        <tripinfo-output value="localhost:60795"/>
        <tripinfo-output.write-unfinished value="true"/>
    </output>

    <time>
        <begin value="0"/>
    </time>

    <processing>
        <time-to-teleport value="-1"/>
        <waiting-time-memory value="1000"/>
        <max-depart-delay value="100000"/>
    </processing>

    <emissions>
        <device.emissions.probability value="1"/>
    </emissions>

    <traci_server>
        <remote-port value="44559"/>
    </traci_server>

    <random_number>
        <random value="true"/>
    </random_number>

    <gui_only>
        <quit-on-end value="true"/>
        <start value="true"/>
    </gui_only>

</configuration>
-->

<tripinfos xmlns:xsi="http://www.w3.org/2001/XMLSchema-instance" xsi:noNamespaceSchemaLocation="http://sumo.dlr.de/xsd/tripinfo_file.xsd">
    <tripinfo id="flow_ns.1" depart="1.00" departLane="n_t_1" departPos="5.10" departSpeed="15.22" departDelay="0.00" arrival="22.00" arrivalLane="t_s_1" arrivalPos="141.95" arrivalSpeed="14.46" duration="21.00" routeLength="294.90" waitingTime="0.00" waitingCount="0" stopTime="0.00" timeLoss="0.85" rerouteNo="0" devices="tripinfo_flow_ns.1 emissions_flow_ns.1" vType="DEFAULT_VEHTYPE" speedFactor="1.09" vaporized="">
        <emissions CO_abs="310.186499" CO2_abs="55072.057896" HC_abs="2.511690" PMx_abs="0.679782" NOx_abs="19.233711" fuel_abs="17565.506308" electricity_abs="0"/>
    </tripinfo>
    <tripinfo id="flow_ns.0" depart="0.00" departLane="n_t_0" departPos="5.10" departSpeed="12.42" departDelay="0.00" arrival="26.00" arrivalLane="t_s_0" arrivalPos="141.95" arrivalSpeed="11.15" duration="26.00" routeLength="294.90" waitingTime="0.00" waitingCount="0" stopTime="0.00" timeLoss="1.40" rerouteNo="0" devices="tripinfo_flow_ns.0 emissions_flow_ns.0" vType="DEFAULT_VEHTYPE" speedFactor="0.89" vaporized="">
        <emissions CO_abs="403.679991" CO2_abs="53575.026207" HC_abs="2.955078" PMx_abs="0.584128" NOx_abs="18.978321" fuel_abs="17088.158289" electricity_abs="0"/>
    </tripinfo>
    <tripinfo id="flow_ns.2" depart="8.00" departLane="n_t_1" departPos="5.10" departSpeed="13.77" departDelay="0.00" arrival="31.00" arrivalLane="t_s_1" arrivalPos="141.95" arrivalSpeed="13.13" duration="23.00" routeLength="294.90" waitingTime="0.00" waitingCount="0" stopTime="0.00" timeLoss="1.29" rerouteNo="0" devices="tripinfo_flow_ns.2 emissions_flow_ns.2" vType="DEFAULT_VEHTYPE" speedFactor="0.99" vaporized="">
        <emissions CO_abs="414.171060" CO2_abs="51523.072809" HC_abs="2.959159" PMx_abs="0.684452" NOx_abs="18.968221" fuel_abs="16433.541212" electricity_abs="0"/>
    </tripinfo>
    <tripinfo id="flow_ns.3" depart="11.00" departLane="n_t_0" departPos="5.10" departSpeed="10.46" departDelay="0.00" arrival="42.00" arrivalLane="t_s_0" arrivalPos="141.95" arrivalSpeed="9.75" duration="31.00" routeLength="294.90" waitingTime="0.00" waitingCount="0" stopTime="0.00" timeLoss="1.97" rerouteNo="0" devices="tripinfo_flow_ns.3 emissions_flow_ns.3" vType="DEFAULT_VEHTYPE" speedFactor="0.75" vaporized="">
        <emissions CO_abs="718.289736" CO2_abs="58790.894617" HC_abs="4.583064" PMx_abs="0.647246" NOx_abs="21.455659" fuel_abs="18751.926946" electricity_abs="0"/>
    </tripinfo>
    <tripinfo id="flow_ns.4" depart="24.00" departLane="n_t_1" departPos="5.10" departSpeed="14.73" departDelay="0.00" arrival="45.00" arrivalLane="t_s_1" arrivalPos="141.95" arrivalSpeed="13.55" duration="21.00" routeLength="294.90" waitingTime="0.00" waitingCount="0" stopTime="0.00" timeLoss="0.86" rerouteNo="0" devices="tripinfo_flow_ns.4 emissions_flow_ns.4" vType="DEFAULT_VEHTYPE" speedFactor="1.06" vaporized="">
        <emissions CO_abs="127.603986" CO2_abs="44514.112590" HC_abs="1.284431" PMx_abs="0.371972" NOx_abs="14.481406" fuel_abs="14198.089383" electricity_abs="0"/>
    </tripinfo>
    <tripinfo id="flow_ns.5" depart="26.00" departLane="n_t_0" departPos="5.10" departSpeed="14.28" departDelay="0.00" arrival="48.00" arrivalLane="t_s_0" arrivalPos="141.95" arrivalSpeed="13.53" duration="22.00" routeLength="294.90" waitingTime="0.00" waitingCount="0" stopTime="0.00" timeLoss="0.99" rerouteNo="0" devices="tripinfo_flow_ns.5 emissions_flow_ns.5" vType="DEFAULT_VEHTYPE" speedFactor="1.03" vaporized="">
        <emissions CO_abs="181.290629" CO2_abs="47475.229650" HC_abs="1.736519" PMx_abs="0.452086" NOx_abs="16.066402" fuel_abs="15142.538337" electricity_abs="0"/>
    </tripinfo>
    <tripinfo id="flow_ns.6" depart="28.00" departLane="n_t_1" departPos="5.10" departSpeed="12.71" departDelay="0.00" arrival="53.00" arrivalLane="t_s_1" arrivalPos="141.95" arrivalSpeed="12.04" duration="25.00" routeLength="294.90" waitingTime="0.00" waitingCount="0" stopTime="0.00" timeLoss="1.29" rerouteNo="0" devices="tripinfo_flow_ns.6 emissions_flow_ns.6" vType="DEFAULT_VEHTYPE" speedFactor="0.91" vaporized="">
        <emissions CO_abs="340.473751" CO2_abs="50389.110867" HC_abs="2.595727" PMx_abs="0.531774" NOx_abs="17.700191" fuel_abs="16071.979744" electricity_abs="0"/>
    </tripinfo>
    <tripinfo id="flow_we.0" depart="0.00" departLane="w_t_0" departPos="5.10" departSpeed="14.01" departDelay="0.00" arrival="58.00" arrivalLane="t_e_0" arrivalPos="148.55" arrivalSpeed="13.07" duration="58.00" routeLength="294.90" waitingTime="29.00" waitingCount="1" stopTime="0.00" timeLoss="36.26" rerouteNo="0" devices="tripinfo_flow_we.0 emissions_flow_we.0" vType="DEFAULT_VEHTYPE" speedFactor="1.01" vaporized="">
        <emissions CO_abs="6017.981302" CO2_abs="152889.193888" HC_abs="30.836017" PMx_abs="3.234917" NOx_abs="65.697772" fuel_abs="48766.344179" electricity_abs="0"/>
    </tripinfo>
    <tripinfo id="flow_we.1" depart="2.00" departLane="w_t_1" departPos="5.10" departSpeed="12.20" departDelay="0.00" arrival="59.00" arrivalLane="t_e_1" arrivalPos="148.55" arrivalSpeed="11.73" duration="57.00" routeLength="294.90" waitingTime="27.00" waitingCount="1" stopTime="0.00" timeLoss="32.61" rerouteNo="0" devices="tripinfo_flow_we.1 emissions_flow_we.1" vType="DEFAULT_VEHTYPE" speedFactor="0.88" vaporized="">
        <emissions CO_abs="5625.647867" CO2_abs="143375.664473" HC_abs="28.884748" PMx_abs="2.921306" NOx_abs="61.118824" fuel_abs="45731.979796" electricity_abs="0"/>
    </tripinfo>
    <tripinfo id="flow_we.2" depart="4.00" departLane="w_t_0" departPos="5.10" departSpeed="14.07" departDelay="0.00" arrival="60.00" arrivalLane="t_e_0" arrivalPos="148.55" arrivalSpeed="13.88" duration="56.00" routeLength="294.90" waitingTime="28.00" waitingCount="1" stopTime="0.00" timeLoss="34.26" rerouteNo="0" devices="tripinfo_flow_we.2 emissions_flow_we.2" vType="DEFAULT_VEHTYPE" speedFactor="1.01" vaporized="">
        <emissions CO_abs="5905.679738" CO2_abs="157535.002284" HC_abs="30.523759" PMx_abs="3.252972" NOx_abs="67.266579" fuel_abs="50248.109614" electricity_abs="0"/>
    </tripinfo>
    <tripinfo id="flow_we.3" depart="6.00" departLane="w_t_1" departPos="5.10" departSpeed="13.00" departDelay="0.00" arrival="61.00" arrivalLane="t_e_1" arrivalPos="148.55" arrivalSpeed="11.91" duration="55.00" routeLength="294.90" waitingTime="24.00" waitingCount="1" stopTime="0.00" timeLoss="31.98" rerouteNo="0" devices="tripinfo_flow_we.3 emissions_flow_we.3" vType="DEFAULT_VEHTYPE" speedFactor="0.94" vaporized="">
        <emissions CO_abs="5279.130231" CO2_abs="143896.792603" HC_abs="27.327906" PMx_abs="2.892826" NOx_abs="61.082793" fuel_abs="45898.007561" electricity_abs="0"/>
    </tripinfo>
    <tripinfo id="flow_we.4" depart="9.00" departLane="w_t_0" departPos="5.10" departSpeed="12.36" departDelay="0.00" arrival="63.00" arrivalLane="t_e_0" arrivalPos="148.55" arrivalSpeed="11.65" duration="54.00" routeLength="294.90" waitingTime="22.00" waitingCount="1" stopTime="0.00" timeLoss="29.73" rerouteNo="0" devices="tripinfo_flow_we.4 emissions_flow_we.4" vType="DEFAULT_VEHTYPE" speedFactor="0.89" vaporized="">
        <emissions CO_abs="5025.979095" CO2_abs="140183.802390" HC_abs="26.078817" PMx_abs="2.681703" NOx_abs="58.484942" fuel_abs="44713.790856" electricity_abs="0"/>
    </tripinfo>
    <tripinfo id="flow_we.5" depart="11.00" departLane="w_t_1" departPos="5.10" departSpeed="16.61" departDelay="0.00" arrival="63.00" arrivalLane="t_e_1" arrivalPos="148.55" arrivalSpeed="15.49" duration="52.00" routeLength="294.90" waitingTime="23.00" waitingCount="1" stopTime="0.00" timeLoss="33.46" rerouteNo="0" devices="tripinfo_flow_we.5 emissions_flow_we.5" vType="DEFAULT_VEHTYPE" speedFactor="1.20" vaporized="">
        <emissions CO_abs="5160.892606" CO2_abs="151164.805817" HC_abs="26.833067" PMx_abs="3.045840" NOx_abs="63.740370" fuel_abs="48215.993931" electricity_abs="0"/>
    </tripinfo>
    <tripinfo id="flow_we.7" depart="13.00" departLane="w_t_1" departPos="5.10" departSpeed="14.10" departDelay="0.00" arrival="64.00" arrivalLane="t_e_1" arrivalPos="148.55" arrivalSpeed="12.81" duration="51.00" routeLength="294.90" waitingTime="22.00" waitingCount="1" stopTime="0.00" timeLoss="30.07" rerouteNo="0" devices="tripinfo_flow_we.7 emissions_flow_we.7" vType="DEFAULT_VEHTYPE" speedFactor="1.01" vaporized="">
        <emissions CO_abs="4896.474904" CO2_abs="134775.321222" HC_abs="25.410939" PMx_abs="2.777103" NOx_abs="57.635250" fuel_abs="42988.475760" electricity_abs="0"/>
    </tripinfo>
    <tripinfo id="flow_we.6" depart="12.00" departLane="w_t_0" departPos="5.10" departSpeed="13.35" departDelay="0.00" arrival="65.00" arrivalLane="t_e_0" arrivalPos="148.55" arrivalSpeed="13.33" duration="53.00" routeLength="294.90" waitingTime="21.00" waitingCount="1" stopTime="0.00" timeLoss="30.18" rerouteNo="0" devices="tripinfo_flow_we.6 emissions_flow_we.6" vType="DEFAULT_VEHTYPE" speedFactor="0.96" vaporized="">
        <emissions CO_abs="5101.266767" CO2_abs="149408.712493" HC_abs="26.676615" PMx_abs="2.922525" NOx_abs="62.794131" fuel_abs="47655.979939" electricity_abs="0"/>
    </tripinfo>
    <tripinfo id="flow_we.8" depart="14.00" departLane="w_t_0" departPos="5.10" departSpeed="13.66" departDelay="0.00" arrival="66.00" arrivalLane="t_e_0" arrivalPos="148.55" arrivalSpeed="13.21" duration="52.00" routeLength="294.90" waitingTime="21.00" waitingCount="1" stopTime="0.00" timeLoss="30.39" rerouteNo="0" devices="tripinfo_flow_we.8 emissions_flow_we.8" vType="DEFAULT_VEHTYPE" speedFactor="0.98" vaporized="">
        <emissions CO_abs="5057.939795" CO2_abs="136229.587731" HC_abs="26.183109" PMx_abs="2.814700" NOx_abs="58.397359" fuel_abs="43452.387303" electricity_abs="0"/>
    </tripinfo>
    <tripinfo id="flow_we.9" depart="15.00" departLane="w_t_1" departPos="5.10" departSpeed="15.04" departDelay="0.00" arrival="66.00" arrivalLane="t_e_1" arrivalPos="148.55" arrivalSpeed="13.98" duration="51.00" routeLength="294.90" waitingTime="21.00" waitingCount="1" stopTime="0.00" timeLoss="31.18" rerouteNo="0" devices="tripinfo_flow_we.9 emissions_flow_we.9" vType="DEFAULT_VEHTYPE" speedFactor="1.09" vaporized="">
        <emissions CO_abs="4927.361104" CO2_abs="136545.512221" HC_abs="25.519806" PMx_abs="2.782364" NOx_abs="58.141456" fuel_abs="43553.109511" electricity_abs="0"/>
    </tripinfo>
    <tripinfo id="flow_we.10" depart="17.00" departLane="w_t_0" departPos="5.10" departSpeed="16.18" departDelay="0.00" arrival="68.00" arrivalLane="t_e_0" arrivalPos="148.55" arrivalSpeed="15.83" duration="51.00" routeLength="294.90" waitingTime="20.00" waitingCount="1" stopTime="0.00" timeLoss="32.36" rerouteNo="0" devices="tripinfo_flow_we.10 emissions_flow_we.10" vType="DEFAULT_VEHTYPE" speedFactor="1.16" vaporized="">
        <emissions CO_abs="5337.452096" CO2_abs="148941.969992" HC_abs="27.782555" PMx_abs="3.162874" NOx_abs="64.288236" fuel_abs="47506.970633" electricity_abs="0"/>
    </tripinfo>
    <tripinfo id="flow_we.11" depart="20.00" departLane="w_t_1" departPos="5.10" departSpeed="13.23" departDelay="0.00" arrival="68.00" arrivalLane="t_e_1" arrivalPos="148.55" arrivalSpeed="11.96" duration="48.00" routeLength="294.90" waitingTime="18.00" waitingCount="1" stopTime="0.00" timeLoss="25.64" rerouteNo="0" devices="tripinfo_flow_we.11 emissions_flow_we.11" vType="DEFAULT_VEHTYPE" speedFactor="0.95" vaporized="">
        <emissions CO_abs="4526.959046" CO2_abs="130109.187958" HC_abs="23.575308" PMx_abs="2.620388" NOx_abs="55.149010" fuel_abs="41500.096806" electricity_abs="0"/>
    </tripinfo>
    <tripinfo id="flow_we.12" depart="21.00" departLane="w_t_0" departPos="5.10" departSpeed="13.08" departDelay="0.00" arrival="70.00" arrivalLane="t_e_0" arrivalPos="148.55" arrivalSpeed="13.03" duration="49.00" routeLength="294.90" waitingTime="18.00" waitingCount="1" stopTime="0.00" timeLoss="26.15" rerouteNo="0" devices="tripinfo_flow_we.12 emissions_flow_we.12" vType="DEFAULT_VEHTYPE" speedFactor="0.94" vaporized="">
        <emissions CO_abs="4581.991497" CO2_abs="135271.061106" HC_abs="23.871887" PMx_abs="2.671825" NOx_abs="56.878741" fuel_abs="43146.525303" electricity_abs="0"/>
    </tripinfo>
    <tripinfo id="flow_we.13" depart="23.00" departLane="w_t_1" departPos="5.10" departSpeed="14.21" departDelay="0.00" arrival="70.00" arrivalLane="t_e_1" arrivalPos="148.55" arrivalSpeed="13.38" duration="47.00" routeLength="294.90" waitingTime="17.00" waitingCount="1" stopTime="0.00" timeLoss="25.73" rerouteNo="0" devices="tripinfo_flow_we.13 emissions_flow_we.13" vType="DEFAULT_VEHTYPE" speedFactor="1.02" vaporized="">
        <emissions CO_abs="4421.718598" CO2_abs="138020.902668" HC_abs="23.350756" PMx_abs="2.810600" NOx_abs="58.815656" fuel_abs="44023.362430" electricity_abs="0"/>
    </tripinfo>
    <tripinfo id="flow_we.15" depart="26.00" departLane="w_t_1" departPos="5.10" departSpeed="13.52" departDelay="0.00" arrival="72.00" arrivalLane="t_e_1" arrivalPos="148.55" arrivalSpeed="13.24" duration="46.00" routeLength="294.90" waitingTime="15.00" waitingCount="1" stopTime="0.00" timeLoss="23.53" rerouteNo="0" devices="tripinfo_flow_we.15 emissions_flow_we.15" vType="DEFAULT_VEHTYPE" speedFactor="0.97" vaporized="">
        <emissions CO_abs="3999.452108" CO2_abs="127783.304803" HC_abs="21.125371" PMx_abs="2.514469" NOx_abs="53.801258" fuel_abs="40758.000711" electricity_abs="0"/>
    </tripinfo>
    <tripinfo id="flow_we.14" depart="24.00" departLane="w_t_0" departPos="5.10" departSpeed="12.87" departDelay="0.00" arrival="73.00" arrivalLane="t_e_0" arrivalPos="148.55" arrivalSpeed="11.73" duration="49.00" routeLength="294.90" waitingTime="17.00" waitingCount="1" stopTime="0.00" timeLoss="25.25" rerouteNo="0" devices="tripinfo_flow_we.14 emissions_flow_we.14" vType="DEFAULT_VEHTYPE" speedFactor="0.93" vaporized="">
        <emissions CO_abs="4301.393961" CO2_abs="123564.173275" HC_abs="22.365567" PMx_abs="2.391041" NOx_abs="51.637514" fuel_abs="39412.594743" electricity_abs="0"/>
    </tripinfo>
    <tripinfo id="flow_we.16" depart="28.00" departLane="w_t_0" departPos="5.10" departSpeed="14.51" departDelay="0.00" arrival="74.00" arrivalLane="t_e_0" arrivalPos="148.55" arrivalSpeed="14.01" duration="46.00" routeLength="294.90" waitingTime="15.00" waitingCount="1" stopTime="0.00" timeLoss="25.38" rerouteNo="0" devices="tripinfo_flow_we.16 emissions_flow_we.16" vType="DEFAULT_VEHTYPE" speedFactor="1.04" vaporized="">
        <emissions CO_abs="4177.919155" CO2_abs="125739.518744" HC_abs="21.887530" PMx_abs="2.522471" NOx_abs="53.333624" fuel_abs="40106.203122" electricity_abs="0"/>
    </tripinfo>
    <tripinfo id="flow_we.17" depart="30.00" departLane="w_t_1" departPos="5.10" departSpeed="12.58" departDelay="0.00" arrival="74.00" arrivalLane="t_e_1" arrivalPos="148.55" arrivalSpeed="11.73" duration="44.00" routeLength="294.90" waitingTime="12.00" waitingCount="1" stopTime="0.00" timeLoss="20.43" rerouteNo="0" devices="tripinfo_flow_we.17 emissions_flow_we.17" vType="DEFAULT_VEHTYPE" speedFactor="0.90" vaporized="">
        <emissions CO_abs="3646.351432" CO2_abs="116974.162011" HC_abs="19.303465" PMx_abs="2.264975" NOx_abs="49.074141" fuel_abs="37310.331730" electricity_abs="0"/>
    </tripinfo>
    <tripinfo id="flow_we.18" depart="32.00" departLane="w_t_0" departPos="5.10" departSpeed="15.41" departDelay="0.00" arrival="76.00" arrivalLane="t_e_0" arrivalPos="148.55" arrivalSpeed="15.21" duration="44.00" routeLength="294.90" waitingTime="12.00" waitingCount="1" stopTime="0.00" timeLoss="24.16" rerouteNo="0" devices="tripinfo_flow_we.18 emissions_flow_we.18" vType="DEFAULT_VEHTYPE" speedFactor="1.11" vaporized="">
        <emissions CO_abs="3888.367953" CO2_abs="127141.342304" HC_abs="20.587902" PMx_abs="2.444096" NOx_abs="52.977791" fuel_abs="40553.255131" electricity_abs="0"/>
    </tripinfo>
    <tripinfo id="flow_we.19" depart="36.00" departLane="w_t_1" departPos="5.10" departSpeed="14.17" departDelay="0.00" arrival="76.00" arrivalLane="t_e_1" arrivalPos="148.55" arrivalSpeed="13.45" duration="40.00" routeLength="294.90" waitingTime="9.00" waitingCount="1" stopTime="0.00" timeLoss="18.69" rerouteNo="0" devices="tripinfo_flow_we.19 emissions_flow_we.19" vType="DEFAULT_VEHTYPE" speedFactor="1.02" vaporized="">
        <emissions CO_abs="3387.320208" CO2_abs="117883.443467" HC_abs="18.164757" PMx_abs="2.348570" NOx_abs="49.937998" fuel_abs="37600.096722" electricity_abs="0"/>
    </tripinfo>
    <tripinfo id="flow_we.20" depart="37.00" departLane="w_t_0" departPos="5.10" departSpeed="15.49" departDelay="0.00" arrival="77.00" arrivalLane="t_e_0" arrivalPos="148.55" arrivalSpeed="15.36" duration="40.00" routeLength="294.90" waitingTime="10.00" waitingCount="1" stopTime="0.00" timeLoss="20.92" rerouteNo="0" devices="tripinfo_flow_we.20 emissions_flow_we.20" vType="DEFAULT_VEHTYPE" speedFactor="1.11" vaporized="">
        <emissions CO_abs="3496.744896" CO2_abs="126782.462157" HC_abs="18.792613" PMx_abs="2.492365" NOx_abs="53.277590" fuel_abs="40438.468819" electricity_abs="0"/>
    </tripinfo>
    <tripinfo id="flow_we.21" depart="39.00" departLane="w_t_1" departPos="5.10" departSpeed="13.64" departDelay="0.00" arrival="78.00" arrivalLane="t_e_1" arrivalPos="148.55" arrivalSpeed="12.63" duration="39.00" routeLength="294.90" waitingTime="6.00" waitingCount="1" stopTime="0.00" timeLoss="16.79" rerouteNo="0" devices="tripinfo_flow_we.21 emissions_flow_we.21" vType="DEFAULT_VEHTYPE" speedFactor="0.98" vaporized="">
        <emissions CO_abs="2809.240741" CO2_abs="107737.192338" HC_abs="15.278862" PMx_abs="2.010878" NOx_abs="44.668845" fuel_abs="34363.828490" electricity_abs="0"/>
    </tripinfo>
    <tripinfo id="flow_we.22" depart="40.00" departLane="w_t_0" departPos="5.10" departSpeed="13.26" departDelay="0.00" arrival="79.00" arrivalLane="t_e_0" arrivalPos="148.55" arrivalSpeed="12.50" duration="39.00" routeLength="294.90" waitingTime="9.00" waitingCount="1" stopTime="0.00" timeLoss="16.78" rerouteNo="0" devices="tripinfo_flow_we.22 emissions_flow_we.22" vType="DEFAULT_VEHTYPE" speedFactor="0.95" vaporized="">
        <emissions CO_abs="3193.209232" CO2_abs="113529.135106" HC_abs="17.117173" PMx_abs="2.197051" NOx_abs="47.658058" fuel_abs="36211.268963" electricity_abs="0"/>
    </tripinfo>
    <tripinfo id="flow_we.23" depart="46.00" departLane="w_t_1" departPos="5.10" departSpeed="14.08" departDelay="0.00" arrival="80.00" arrivalLane="t_e_1" arrivalPos="148.55" arrivalSpeed="13.78" duration="34.00" routeLength="294.90" waitingTime="2.00" waitingCount="1" stopTime="0.00" timeLoss="12.12" rerouteNo="0" devices="tripinfo_flow_we.23 emissions_flow_we.23" vType="DEFAULT_VEHTYPE" speedFactor="1.01" vaporized="">
        <emissions CO_abs="2198.013788" CO2_abs="100145.129244" HC_abs="12.294459" PMx_abs="1.782937" NOx_abs="40.872679" fuel_abs="31942.103230" electricity_abs="0"/>
    </tripinfo>
    <tripinfo id="flow_we.25" depart="50.00" departLane="w_t_1" departPos="5.10" departSpeed="14.65" departDelay="0.00" arrival="81.00" arrivalLane="t_e_1" arrivalPos="148.55" arrivalSpeed="14.29" duration="31.00" routeLength="294.90" waitingTime="0.00" waitingCount="0" stopTime="0.00" timeLoss="10.57" rerouteNo="0" devices="tripinfo_flow_we.25 emissions_flow_we.25" vType="DEFAULT_VEHTYPE" speedFactor="1.05" vaporized="">
        <emissions CO_abs="1851.235664" CO2_abs="96512.456993" HC_abs="10.650249" PMx_abs="1.753624" NOx_abs="39.654764" fuel_abs="30783.225044" electricity_abs="0"/>
    </tripinfo>
    <tripinfo id="flow_we.24" depart="49.00" departLane="w_t_0" departPos="5.10" departSpeed="12.28" departDelay="0.00" arrival="83.00" arrivalLane="t_e_0" arrivalPos="148.55" arrivalSpeed="11.62" duration="34.00" routeLength="294.90" waitingTime="1.00" waitingCount="1" stopTime="0.00" timeLoss="9.30" rerouteNo="0" devices="tripinfo_flow_we.24 emissions_flow_we.24" vType="DEFAULT_VEHTYPE" speedFactor="0.88" vaporized="">
        <emissions CO_abs="1799.597180" CO2_abs="83764.939780" HC_abs="10.077459" PMx_abs="1.403736" NOx_abs="33.687245" fuel_abs="26717.580498" electricity_abs="0"/>
    </tripinfo>
    <tripinfo id="flow_we.26" depart="51.00" departLane="w_t_0" departPos="5.10" departSpeed="13.12" departDelay="0.00" arrival="84.00" arrivalLane="t_e_0" arrivalPos="148.55" arrivalSpeed="13.66" duration="33.00" routeLength="294.90" waitingTime="0.00" waitingCount="0" stopTime="0.00" timeLoss="13.04" rerouteNo="0" devices="tripinfo_flow_we.26 emissions_flow_we.26" vType="DEFAULT_VEHTYPE" speedFactor="1.07" vaporized="">
        <emissions CO_abs="1967.039567" CO2_abs="95436.894925" HC_abs="11.197886" PMx_abs="1.755536" NOx_abs="39.566155" fuel_abs="30440.215992" electricity_abs="0"/>
    </tripinfo>
    <tripinfo id="flow_we.27" depart="52.00" departLane="w_t_1" departPos="5.10" departSpeed="11.98" departDelay="0.00" arrival="85.00" arrivalLane="t_e_1" arrivalPos="148.55" arrivalSpeed="11.81" duration="33.00" routeLength="294.90" waitingTime="0.00" waitingCount="0" stopTime="0.00" timeLoss="7.97" rerouteNo="0" devices="tripinfo_flow_we.27 emissions_flow_we.27" vType="DEFAULT_VEHTYPE" speedFactor="0.86" vaporized="">
        <emissions CO_abs="1295.662804" CO2_abs="81813.052474" HC_abs="7.713396" PMx_abs="1.152824" NOx_abs="31.346149" fuel_abs="26094.979887" electricity_abs="0"/>
    </tripinfo>
    <tripinfo id="flow_we.28" depart="54.00" departLane="w_t_0" departPos="5.10" departSpeed="12.69" departDelay="0.00" arrival="86.00" arrivalLane="t_e_0" arrivalPos="148.55" arrivalSpeed="11.46" duration="32.00" routeLength="294.90" waitingTime="0.00" waitingCount="0" stopTime="0.00" timeLoss="8.64" rerouteNo="0" devices="tripinfo_flow_we.28 emissions_flow_we.28" vType="DEFAULT_VEHTYPE" speedFactor="0.91" vaporized="">
        <emissions CO_abs="1522.954581" CO2_abs="84659.040441" HC_abs="8.855007" PMx_abs="1.441772" NOx_abs="34.258438" fuel_abs="27002.539720" electricity_abs="0"/>
    </tripinfo>
    <tripinfo id="flow_we.29" depart="56.00" departLane="w_t_1" departPos="5.10" departSpeed="14.04" departDelay="0.00" arrival="87.00" arrivalLane="t_e_1" arrivalPos="148.55" arrivalSpeed="14.82" duration="31.00" routeLength="294.90" waitingTime="0.00" waitingCount="0" stopTime="0.00" timeLoss="11.95" rerouteNo="0" devices="tripinfo_flow_we.29 emissions_flow_we.29" vType="DEFAULT_VEHTYPE" speedFactor="1.16" vaporized="">
        <emissions CO_abs="1356.389869" CO2_abs="89380.356399" HC_abs="8.243034" PMx_abs="1.492459" NOx_abs="35.965980" fuel_abs="28508.315622" electricity_abs="0"/>
    </tripinfo>
    <tripinfo id="flow_we.30" depart="58.00" departLane="w_t_0" departPos="5.10" departSpeed="11.98" departDelay="0.00" arrival="88.00" arrivalLane="t_e_0" arrivalPos="148.55" arrivalSpeed="13.94" duration="30.00" routeLength="294.90" waitingTime="0.00" waitingCount="0" stopTime="0.00" timeLoss="9.22" rerouteNo="0" devices="tripinfo_flow_we.30 emissions_flow_we.30" vType="DEFAULT_VEHTYPE" speedFactor="1.05" vaporized="">
        <emissions CO_abs="1461.465844" CO2_abs="95901.308320" HC_abs="8.857078" PMx_abs="1.617623" NOx_abs="38.641991" fuel_abs="30588.190223" electricity_abs="0"/>
    </tripinfo>
    <tripinfo id="flow_we.31" depart="60.00" departLane="w_t_1" departPos="5.10" departSpeed="12.37" departDelay="0.00" arrival="88.00" arrivalLane="t_e_1" arrivalPos="148.55" arrivalSpeed="13.00" duration="28.00" routeLength="294.90" waitingTime="0.00" waitingCount="0" stopTime="0.00" timeLoss="5.52" rerouteNo="0" devices="tripinfo_flow_we.31 emissions_flow_we.31" vType="DEFAULT_VEHTYPE" speedFactor="0.95" vaporized="">
        <emissions CO_abs="1024.460177" CO2_abs="75521.898217" HC_abs="6.360416" PMx_abs="1.225510" NOx_abs="30.064898" fuel_abs="24088.057576" electricity_abs="0"/>
    </tripinfo>
    <tripinfo id="flow_we.32" depart="61.00" departLane="w_t_0" departPos="5.10" departSpeed="9.81" departDelay="0.00" arrival="90.00" arrivalLane="t_e_0" arrivalPos="148.55" arrivalSpeed="13.90" duration="29.00" routeLength="294.90" waitingTime="0.00" waitingCount="0" stopTime="0.00" timeLoss="7.07" rerouteNo="0" devices="tripinfo_flow_we.32 emissions_flow_we.32" vType="DEFAULT_VEHTYPE" speedFactor="1.01" vaporized="">
        <emissions CO_abs="1353.339921" CO2_abs="92206.312772" HC_abs="8.291920" PMx_abs="1.654038" NOx_abs="37.827784" fuel_abs="29409.504550" electricity_abs="0"/>
    </tripinfo>
    <tripinfo id="flow_we.33" depart="62.00" departLane="w_t_1" departPos="5.10" departSpeed="9.64" departDelay="0.00" arrival="90.00" arrivalLane="t_e_1" arrivalPos="148.55" arrivalSpeed="13.87" duration="28.00" routeLength="294.90" waitingTime="0.00" waitingCount="0" stopTime="0.00" timeLoss="6.84" rerouteNo="0" devices="tripinfo_flow_we.33 emissions_flow_we.33" vType="DEFAULT_VEHTYPE" speedFactor="1.02" vaporized="">
        <emissions CO_abs="1007.407773" CO2_abs="77996.548431" HC_abs="6.351449" PMx_abs="1.281337" NOx_abs="30.988971" fuel_abs="24877.317458" electricity_abs="0"/>
    </tripinfo>
    <tripinfo id="flow_we.35" depart="67.00" departLane="w_t_0" departPos="5.10" departSpeed="13.52" departDelay="0.00" arrival="91.00" arrivalLane="t_e_0" arrivalPos="148.55" arrivalSpeed="13.55" duration="24.00" routeLength="294.90" waitingTime="0.00" waitingCount="0" stopTime="0.00" timeLoss="3.13" rerouteNo="0" devices="tripinfo_flow_we.35 emissions_flow_we.35" vType="DEFAULT_VEHTYPE" speedFactor="1.02" vaporized="">
        <emissions CO_abs="738.720963" CO2_abs="65195.988886" HC_abs="4.855439" PMx_abs="1.077546" NOx_abs="25.913545" fuel_abs="20794.456849" electricity_abs="0"/>
    </tripinfo>
    <tripinfo id="flow_we.34" depart="64.00" departLane="w_t_0" departPos="5.10" departSpeed="8.03" departDelay="0.00" arrival="92.00" arrivalLane="t_e_1" arrivalPos="148.55" arrivalSpeed="11.91" duration="28.00" routeLength="294.90" waitingTime="0.00" waitingCount="0" stopTime="0.00" timeLoss="3.62" rerouteNo="0" devices="tripinfo_flow_we.34 emissions_flow_we.34" vType="DEFAULT_VEHTYPE" speedFactor="0.87" vaporized="">
        <emissions CO_abs="1024.152043" CO2_abs="78819.540315" HC_abs="6.448333" PMx_abs="1.182940" NOx_abs="30.760898" fuel_abs="25139.937992" electricity_abs="0"/>
    </tripinfo>
    <tripinfo id="flow_we.37" depart="70.00" departLane="w_t_0" departPos="5.10" departSpeed="15.95" departDelay="0.00" arrival="93.00" arrivalLane="t_e_0" arrivalPos="148.55" arrivalSpeed="15.66" duration="23.00" routeLength="294.90" waitingTime="0.00" waitingCount="0" stopTime="0.00" timeLoss="4.34" rerouteNo="0" devices="tripinfo_flow_we.37 emissions_flow_we.37" vType="DEFAULT_VEHTYPE" speedFactor="1.17" vaporized="">
        <emissions CO_abs="820.835435" CO2_abs="70562.301899" HC_abs="5.245028" PMx_abs="1.214662" NOx_abs="28.132721" fuel_abs="22506.012707" electricity_abs="0"/>
    </tripinfo>
    <tripinfo id="flow_we.36" depart="69.00" departLane="w_t_1" departPos="5.10" departSpeed="14.49" departDelay="0.00" arrival="94.00" arrivalLane="t_e_1" arrivalPos="148.55" arrivalSpeed="13.67" duration="25.00" routeLength="294.90" waitingTime="0.00" waitingCount="0" stopTime="0.00" timeLoss="4.17" rerouteNo="0" devices="tripinfo_flow_we.36 emissions_flow_we.36" vType="DEFAULT_VEHTYPE" speedFactor="1.04" vaporized="">
        <emissions CO_abs="663.686761" CO2_abs="60525.910994" HC_abs="4.399247" PMx_abs="0.930452" NOx_abs="23.513864" fuel_abs="19304.991354" electricity_abs="0"/>
    </tripinfo>
    <tripinfo id="flow_we.39" depart="74.00" departLane="w_t_0" departPos="5.10" departSpeed="14.65" departDelay="0.00" arrival="95.00" arrivalLane="t_e_0" arrivalPos="148.55" arrivalSpeed="14.58" duration="21.00" routeLength="294.90" waitingTime="0.00" waitingCount="0" stopTime="0.00" timeLoss="0.69" rerouteNo="0" devices="tripinfo_flow_we.39 emissions_flow_we.39" vType="DEFAULT_VEHTYPE" speedFactor="1.05" vaporized="">
        <emissions CO_abs="332.819699" CO2_abs="52792.029902" HC_abs="2.518707" PMx_abs="0.654791" NOx_abs="18.740328" fuel_abs="16838.277557" electricity_abs="0"/>
    </tripinfo>
    <tripinfo id="flow_we.38" depart="73.00" departLane="w_t_1" departPos="5.10" departSpeed="14.34" departDelay="0.00" arrival="96.00" arrivalLane="t_e_1" arrivalPos="148.55" arrivalSpeed="13.67" duration="23.00" routeLength="294.90" waitingTime="0.00" waitingCount="0" stopTime="0.00" timeLoss="1.66" rerouteNo="0" devices="tripinfo_flow_we.38 emissions_flow_we.38" vType="DEFAULT_VEHTYPE" speedFactor="1.03" vaporized="">
        <emissions CO_abs="512.482058" CO2_abs="59782.573916" HC_abs="3.552664" PMx_abs="0.838665" NOx_abs="22.311725" fuel_abs="19067.905540" electricity_abs="0"/>
    </tripinfo>